ITEM: TIMESTEP
0
ITEM: NUMBER OF ATOMS
11164
ITEM: BOX BOUNDS xy xz yz pp pp pp
0.0000000000000000e+00 1.9850840849634051e+02 6.6169469498780174e+01
0.0000000000000000e+00 1.1460888308176639e+02 0.0000000000000000e+00
0.0000000000000000e+00 3.5000000000000000e+01 0.0000000000000000e+00
ITEM: ATOMS id type x y z ix iy iz
1 1          66.14576134         112.10399528                 17.5 0 0 0
2 1          68.32691189         113.33590731                 17.5 0 0 0
3 1          70.50806245         114.56781935                 17.5 0 0 0
4 1          63.94090263         108.36719543                 17.5 0 0 0
5 1          66.12205318         109.59910747                 17.5 0 0 0
6 1          68.30320374          110.8310195                 17.5 0 0 0
7 1          70.48435429         112.06293154                 17.5 0 0 0
8 1          72.66550484         113.29484358                 17.5 0 0 0
9 1           74.8466554         114.52675561                 17.5 0 0 0
10 1          61.73604392         104.63039559                 17.5 0 0 0
11 1          63.91719447         105.86230763                 17.5 0 0 0
12 1          66.09834502         107.09421966                 17.5 0 0 0
13 1          68.27949558          108.3261317                 17.5 0 0 0
14 1          70.46064613         109.55804373                 17.5 0 0 0
15 1          72.64179668         110.78995577                 17.5 0 0 0
16 1          74.82294724         112.02186781                 17.5 0 0 0
17 1          77.00409779         113.25377984                 17.5 0 0 0
18 1          79.18524834         114.48569188                 17.5 0 0 0
19 1          59.53118521         100.89359575                 17.5 0 0 0
20 1          61.71233576         102.12550778                 17.5 0 0 0
21 1          63.89348631         103.35741982                 17.5 0 0 0
22 1          66.07463687         104.58933186                 17.5 0 0 0
23 1          68.25578742         105.82124389                 17.5 0 0 0
24 1          70.43693797         107.05315593                 17.5 0 0 0
25 1          72.61808853         108.28506796                 17.5 0 0 0
26 1          74.79923908            109.51698                 17.5 0 0 0
27 1          76.98038963         110.74889204                 17.5 0 0 0
28 1          79.16154019         111.98080407                 17.5 0 0 0
29 1          81.34269074         113.21271611                 17.5 0 0 0
30 1          83.52384129         114.44462814                 17.5 0 0 0
31 1           57.3263265          97.15679591                 17.5 0 0 0
32 1          59.50747705          98.38870794                 17.5 0 0 0
33 1           61.6886276          99.62061998                 17.5 0 0 0
34 1          63.86977815         100.85253201                 17.5 0 0 0
35 1          66.05092871         102.08444405                 17.5 0 0 0
36 1          68.23207926         103.31635609                 17.5 0 0 0
37 1          70.41322981         104.54826812                 17.5 0 0 0
38 1          72.59438037         105.78018016                 17.5 0 0 0
39 1          74.77553092         107.01209219                 17.5 0 0 0
40 1          76.95668147         108.24400423                 17.5 0 0 0
41 1          79.13783203         109.47591627                 17.5 0 0 0
42 1          81.31898258          110.7078283                 17.5 0 0 0
43 1          83.50013313         111.93974034                 17.5 0 0 0
44 1          85.68128369         113.17165237                 17.5 0 0 0
45 1          87.86243424         114.40356441                 17.5 0 0 0
46 1          55.12146778          93.41999606                 17.5 0 0 0
47 1          57.30261834           94.6519081                 17.5 0 0 0
48 1          59.48376889          95.88382013                 17.5 0 0 0
49 1          61.66491944          97.11573217                 17.5 0 0 0
50 1             63.84607          98.34764421                 17.5 0 0 0
51 1          66.02722055          99.57955624                 17.5 0 0 0
52 1           68.2083711         100.81146828                 17.5 0 0 0
53 1          70.38952166         102.04338031                 17.5 0 0 0
54 1          72.57067221         103.27529235                 17.5 0 0 0
55 1          74.75182276         104.50720439                 17.5 0 0 0
56 1          76.93297332         105.73911642                 17.5 0 0 0
57 1          79.11412387         106.97102846                 17.5 0 0 0
58 1          81.29527442         108.20294049                 17.5 0 0 0
59 1          83.47642497         109.43485253                 17.5 0 0 0
60 1          85.65757553         110.66676457                 17.5 0 0 0
61 1          87.83872608          111.8986766                 17.5 0 0 0
62 1          90.01987663         113.13058864                 17.5 0 0 0
63 1          92.20102719         114.36250067                 17.5 0 0 0
64 1          52.91660907          89.68319622                 17.5 0 0 0
65 1          55.09775963          90.91510826                 17.5 0 0 0
66 1          57.27891018          92.14702029                 17.5 0 0 0
67 1          59.46006073          93.37893233                 17.5 0 0 0
68 1          61.64121129          94.61084436                 17.5 0 0 0
69 1          63.82236184           95.8427564                 17.5 0 0 0
70 1          66.00351239          97.07466844                 17.5 0 0 0
71 1          68.18466294          98.30658047                 17.5 0 0 0
72 1           70.3658135          99.53849251                 17.5 0 0 0
73 1          72.54696405         100.77040454                 17.5 0 0 0
74 1           74.7281146         102.00231658                 17.5 0 0 0
75 1          76.90926516         103.23422862                 17.5 0 0 0
76 1          79.09041571         104.46614065                 17.5 0 0 0
77 1          81.27156626         105.69805269                 17.5 0 0 0
78 1          83.45271682         106.92996472                 17.5 0 0 0
79 1          85.63386737         108.16187676                 17.5 0 0 0
80 1          87.81501792          109.3937888                 17.5 0 0 0
81 1          89.99616848         110.62570083                 17.5 0 0 0
82 1          92.17731903         111.85761287                 17.5 0 0 0
83 1          94.35846958          113.0895249                 17.5 0 0 0
84 1          96.53962014         114.32143694                 17.5 0 0 0
85 1          50.71175036          85.94639638                 17.5 0 0 0
86 1          52.89290091          87.17830841                 17.5 0 0 0
87 1          55.07405147          88.41022045                 17.5 0 0 0
88 1          57.25520202          89.64213249                 17.5 0 0 0
89 1          59.43635257          90.87404452                 17.5 0 0 0
90 1          61.61750313          92.10595656                 17.5 0 0 0
91 1          63.79865368          93.33786859                 17.5 0 0 0
92 1          65.97980423          94.56978063                 17.5 0 0 0
93 1          68.16095479          95.80169267                 17.5 0 0 0
94 1          70.34210534           97.0336047                 17.5 0 0 0
95 1          72.52325589          98.26551674                 17.5 0 0 0
96 1          74.70440645          99.49742877                 17.5 0 0 0
97 1            76.885557         100.72934081                 17.5 0 0 0
98 1          79.06670755         101.96125285                 17.5 0 0 0
99 1          81.24785811         103.19316488                 17.5 0 0 0
100 1          83.42900866         104.42507692                 17.5 0 0 0
101 1          85.61015921         105.65698895                 17.5 0 0 0
102 1          87.79130976         106.88890099                 17.5 0 0 0
103 1          89.97246032         108.12081303                 17.5 0 0 0
104 1          92.15361087         109.35272506                 17.5 0 0 0
105 1          94.33476142          110.5846371                 17.5 0 0 0
106 1          96.51591198         111.81654913                 17.5 0 0 0
107 1          98.69706253         113.04846117                 17.5 0 0 0
108 1         100.87821308         114.28037321                 17.5 0 0 0
109 1          48.50689165          82.20959654                 17.5 0 0 0
110 1           50.6880422          83.44150857                 17.5 0 0 0
111 1          52.86919276          84.67342061                 17.5 0 0 0
112 1          55.05034331          85.90533264                 17.5 0 0 0
113 1          57.23149386          87.13724468                 17.5 0 0 0
114 1          59.41264442          88.36915672                 17.5 0 0 0
115 1          61.59379497          89.60106875                 17.5 0 0 0
116 1          63.77494552          90.83298079                 17.5 0 0 0
117 1          65.95609608          92.06489282                 17.5 0 0 0
118 1          68.13724663          93.29680486                 17.5 0 0 0
119 1          70.31839718           94.5287169                 17.5 0 0 0
120 1          72.49954773          95.76062893                 17.5 0 0 0
121 1          74.68069829          96.99254097                 17.5 0 0 0
122 1          76.86184884            98.224453                 17.5 0 0 0
123 1          79.04299939          99.45636504                 17.5 0 0 0
124 1          81.22414995         100.68827708                 17.5 0 0 0
125 1           83.4053005         101.92018911                 17.5 0 0 0
126 1          85.58645105         103.15210115                 17.5 0 0 0
127 1          87.76760161         104.38401318                 17.5 0 0 0
128 1          89.94875216         105.61592522                 17.5 0 0 0
129 1          92.12990271         106.84783726                 17.5 0 0 0
130 1          94.31105327         108.07974929                 17.5 0 0 0
131 1          96.49220382         109.31166133                 17.5 0 0 0
132 1          98.67335437         110.54357336                 17.5 0 0 0
133 1         100.85450493          111.7754854                 17.5 0 0 0
134 1         103.03565548         113.00739743                 17.5 0 0 0
135 1         105.21680603         114.23930947                 17.5 0 0 0
136 1          46.30203294          78.47279669                 17.5 0 0 0
137 1          48.48318349          79.70470873                 17.5 0 0 0
138 1          50.66433404          80.93662076                 17.5 0 0 0
139 1           52.8454846           82.1685328                 17.5 0 0 0
140 1          55.02663515          83.40044484                 17.5 0 0 0
141 1           57.2077857          84.63235687                 17.5 0 0 0
142 1          59.38893626          85.86426891                 17.5 0 0 0
143 1          61.57008681          87.09618094                 17.5 0 0 0
144 1          63.75123736          88.32809298                 17.5 0 0 0
145 1          65.93238792          89.56000502                 17.5 0 0 0
146 1          68.11353847          90.79191705                 17.5 0 0 0
147 1          70.29468902          92.02382909                 17.5 0 0 0
148 1          72.47583958          93.25574112                 17.5 0 0 0
149 1          74.65699013          94.48765316                 17.5 0 0 0
150 1          76.83814068           95.7195652                 17.5 0 0 0
151 1          79.01929124          96.95147723                 17.5 0 0 0
152 1          81.20044179          98.18338927                 17.5 0 0 0
153 1          83.38159234           99.4153013                 17.5 0 0 0
154 1           85.5627429         100.64721334                 17.5 0 0 0
155 1          87.74389345         101.87912538                 17.5 0 0 0
156 1            89.925044         103.11103741                 17.5 0 0 0
157 1          92.10619455         104.34294945                 17.5 0 0 0
158 1          94.28734511         105.57486148                 17.5 0 0 0
159 1          96.46849566         106.80677352                 17.5 0 0 0
160 1          98.64964621         108.03868556                 17.5 0 0 0
161 1         100.83079677         109.27059759                 17.5 0 0 0
162 1         103.01194732         110.50250963                 17.5 0 0 0
163 1         105.19309787         111.73442166                 17.5 0 0 0
164 1         107.37424843          112.9663337                 17.5 0 0 0
165 1         109.55539898         114.19824574                 17.5 0 0 0
166 1          44.09717423          74.73599685                 17.5 0 0 0
167 1          46.27832478          75.96790889                 17.5 0 0 0
168 1          48.45947533          77.19982092                 17.5 0 0 0
169 1          50.64062589          78.43173296                 17.5 0 0 0
170 1          52.82177644          79.66364499                 17.5 0 0 0
171 1          55.00292699          80.89555703                 17.5 0 0 0
172 1          57.18407755          82.12746907                 17.5 0 0 0
173 1           59.3652281           83.3593811                 17.5 0 0 0
174 1          61.54637865          84.59129314                 17.5 0 0 0
175 1          63.72752921          85.82320517                 17.5 0 0 0
176 1          65.90867976          87.05511721                 17.5 0 0 0
177 1          68.08983031          88.28702925                 17.5 0 0 0
178 1          70.27098087          89.51894128                 17.5 0 0 0
179 1          72.45213142          90.75085332                 17.5 0 0 0
180 1          74.63328197          91.98276535                 17.5 0 0 0
181 1          76.81443252          93.21467739                 17.5 0 0 0
182 1          78.99558308          94.44658943                 17.5 0 0 0
183 1          81.17673363          95.67850146                 17.5 0 0 0
184 1          83.35788418           96.9104135                 17.5 0 0 0
185 1          85.53903474          98.14232553                 17.5 0 0 0
186 1          87.72018529          99.37423757                 17.5 0 0 0
187 1          89.90133584         100.60614961                 17.5 0 0 0
188 1           92.0824864         101.83806164                 17.5 0 0 0
189 1          94.26363695         103.06997368                 17.5 0 0 0
190 1           96.4447875         104.30188571                 17.5 0 0 0
191 1          98.62593806         105.53379775                 17.5 0 0 0
192 1         100.80708861         106.76570979                 17.5 0 0 0
193 1         102.98823916         107.99762182                 17.5 0 0 0
194 1         105.16938972         109.22953386                 17.5 0 0 0
195 1         107.35054027         110.46144589                 17.5 0 0 0
196 1         109.53169082         111.69335793                 17.5 0 0 0
197 1         111.71284138         112.92526997                 17.5 0 0 0
198 1         113.89399193           114.157182                 17.5 0 0 0
199 1          41.89231552          70.99919701                 17.5 0 0 0
200 1          44.07346607          72.23110904                 17.5 0 0 0
201 1          46.25461662          73.46302108                 17.5 0 0 0
202 1          48.43576718          74.69493312                 17.5 0 0 0
203 1          50.61691773          75.92684515                 17.5 0 0 0
204 1          52.79806828          77.15875719                 17.5 0 0 0
205 1          54.97921883          78.39066922                 17.5 0 0 0
206 1          57.16036939          79.62258126                 17.5 0 0 0
207 1          59.34151994           80.8544933                 17.5 0 0 0
208 1          61.52267049          82.08640533                 17.5 0 0 0
209 1          63.70382105          83.31831737                 17.5 0 0 0
210 1           65.8849716           84.5502294                 17.5 0 0 0
211 1          68.06612215          85.78214144                 17.5 0 0 0
212 1          70.24727271          87.01405348                 17.5 0 0 0
213 1          72.42842326          88.24596551                 17.5 0 0 0
214 1          74.60957381          89.47787755                 17.5 0 0 0
215 1          76.79072437          90.70978958                 17.5 0 0 0
216 1          78.97187492          91.94170162                 17.5 0 0 0
217 1          81.15302547          93.17361366                 17.5 0 0 0
218 1          83.33417603          94.40552569                 17.5 0 0 0
219 1          85.51532658          95.63743773                 17.5 0 0 0
220 1          87.69647713          96.86934976                 17.5 0 0 0
221 1          89.87762769           98.1012618                 17.5 0 0 0
222 1          92.05877824          99.33317384                 17.5 0 0 0
223 1          94.23992879         100.56508587                 17.5 0 0 0
224 1          96.42107934         101.79699791                 17.5 0 0 0
225 1           98.6022299         103.02890994                 17.5 0 0 0
226 1         100.78338045         104.26082198                 17.5 0 0 0
227 1           102.964531         105.49273402                 17.5 0 0 0
228 1         105.14568156         106.72464605                 17.5 0 0 0
229 1         107.32683211         107.95655809                 17.5 0 0 0
230 1         109.50798266         109.18847012                 17.5 0 0 0
231 1         111.68913322         110.42038216                 17.5 0 0 0
232 1         113.87028377          111.6522942                 17.5 0 0 0
233 1         116.05143432         112.88420623                 17.5 0 0 0
234 1         118.23258488         114.11611827                 17.5 0 0 0
235 1           39.6874568          67.26239717                 17.5 0 0 0
236 1          41.86860736           68.4943092                 17.5 0 0 0
237 1          44.04975791          69.72622124                 17.5 0 0 0
238 1          46.23090846          70.95813327                 17.5 0 0 0
239 1          48.41205902          72.19004531                 17.5 0 0 0
240 1          50.59320957          73.42195735                 17.5 0 0 0
241 1          52.77436012          74.65386938                 17.5 0 0 0
242 1          54.95551068          75.88578142                 17.5 0 0 0
243 1          57.13666123          77.11769345                 17.5 0 0 0
244 1          59.31781178          78.34960549                 17.5 0 0 0
245 1          61.49896234          79.58151753                 17.5 0 0 0
246 1          63.68011289          80.81342956                 17.5 0 0 0
247 1          65.86126344           82.0453416                 17.5 0 0 0
248 1            68.042414          83.27725363                 17.5 0 0 0
249 1          70.22356455          84.50916567                 17.5 0 0 0
250 1           72.4047151          85.74107771                 17.5 0 0 0
251 1          74.58586566          86.97298974                 17.5 0 0 0
252 1          76.76701621          88.20490178                 17.5 0 0 0
253 1          78.94816676          89.43681381                 17.5 0 0 0
254 1          81.12931731          90.66872585                 17.5 0 0 0
255 1          83.31046787          91.90063788                 17.5 0 0 0
256 1          85.49161842          93.13254992                 17.5 0 0 0
257 1          87.67276897          94.36446196                 17.5 0 0 0
258 1          89.85391953          95.59637399                 17.5 0 0 0
259 1          92.03507008          96.82828603                 17.5 0 0 0
260 1          94.21622063          98.06019806                 17.5 0 0 0
261 1          96.39737119           99.2921101                 17.5 0 0 0
262 1          98.57852174         100.52402214                 17.5 0 0 0
263 1         100.75967229         101.75593417                 17.5 0 0 0
264 1         102.94082285         102.98784621                 17.5 0 0 0
265 1          105.1219734         104.21975824                 17.5 0 0 0
266 1         107.30312395         105.45167028                 17.5 0 0 0
267 1         109.48427451         106.68358232                 17.5 0 0 0
268 1         111.66542506         107.91549435                 17.5 0 0 0
269 1         113.84657561         109.14740639                 17.5 0 0 0
270 1         116.02772617         110.37931842                 17.5 0 0 0
271 1         118.20887672         111.61123046                 17.5 0 0 0
272 1         120.39002727          112.8431425                 17.5 0 0 0
273 1         122.57117782         114.07505453                 17.5 0 0 0
274 1          37.48259809          63.52559732                 17.5 0 0 0
275 1          39.66374865          64.75750936                 17.5 0 0 0
276 1           41.8448992          65.98942139                 17.5 0 0 0
277 1          44.02604975          67.22133343                 17.5 0 0 0
278 1          46.20720031          68.45324547                 17.5 0 0 0
279 1          48.38835086           69.6851575                 17.5 0 0 0
280 1          50.56950141          70.91706954                 17.5 0 0 0
281 1          52.75065197          72.14898157                 17.5 0 0 0
282 1          54.93180252          73.38089361                 17.5 0 0 0
283 1          57.11295307          74.61280565                 17.5 0 0 0
284 1          59.29410362          75.84471768                 17.5 0 0 0
285 1          61.47525418          77.07662972                 17.5 0 0 0
286 1          63.65640473          78.30854175                 17.5 0 0 0
287 1          65.83755528          79.54045379                 17.5 0 0 0
288 1          68.01870584          80.77236583                 17.5 0 0 0
289 1          70.19985639          82.00427786                 17.5 0 0 0
290 1          72.38100694           83.2361899                 17.5 0 0 0
291 1           74.5621575          84.46810193                 17.5 0 0 0
292 1          76.74330805          85.70001397                 17.5 0 0 0
293 1           78.9244586          86.93192601                 17.5 0 0 0
294 1          81.10560916          88.16383804                 17.5 0 0 0
295 1          83.28675971          89.39575008                 17.5 0 0 0
296 1          85.46791026          90.62766211                 17.5 0 0 0
297 1          87.64906082          91.85957415                 17.5 0 0 0
298 1          89.83021137          93.09148619                 17.5 0 0 0
299 1          92.01136192          94.32339822                 17.5 0 0 0
300 1          94.19251248          95.55531026                 17.5 0 0 0
301 1          96.37366303          96.78722229                 17.5 0 0 0
302 1          98.55481358          98.01913433                 17.5 0 0 0
303 1         100.73596413          99.25104637                 17.5 0 0 0
304 1         102.91711469          100.4829584                 17.5 0 0 0
305 1         105.09826524         101.71487044                 17.5 0 0 0
306 1         107.27941579         102.94678247                 17.5 0 0 0
307 1         109.46056635         104.17869451                 17.5 0 0 0
308 1          111.6417169         105.41060655                 17.5 0 0 0
309 1         113.82286745         106.64251858                 17.5 0 0 0
310 1         116.00401801         107.87443062                 17.5 0 0 0
311 1         118.18516856         109.10634265                 17.5 0 0 0
312 1         120.36631911         110.33825469                 17.5 0 0 0
313 1         122.54746967         111.57016673                 17.5 0 0 0
314 1         124.72862022         112.80207876                 17.5 0 0 0
315 1         126.90977077          114.0339908                 17.5 0 0 0
316 1          35.27773938          59.78879748                 17.5 0 0 0
317 1          37.45888993          61.02070952                 17.5 0 0 0
318 1          39.64004049          62.25262155                 17.5 0 0 0
319 1          41.82119104          63.48453359                 17.5 0 0 0
320 1          44.00234159          64.71644562                 17.5 0 0 0
321 1          46.18349215          65.94835766                 17.5 0 0 0
322 1           48.3646427           67.1802697                 17.5 0 0 0
323 1          50.54579325          68.41218173                 17.5 0 0 0
324 1          52.72694381          69.64409377                 17.5 0 0 0
325 1          54.90809436           70.8760058                 17.5 0 0 0
326 1          57.08924491          72.10791784                 17.5 0 0 0
327 1          59.27039547          73.33982988                 17.5 0 0 0
328 1          61.45154602          74.57174191                 17.5 0 0 0
329 1          63.63269657          75.80365395                 17.5 0 0 0
330 1          65.81384713          77.03556598                 17.5 0 0 0
331 1          67.99499768          78.26747802                 17.5 0 0 0
332 1          70.17614823          79.49939006                 17.5 0 0 0
333 1          72.35729879          80.73130209                 17.5 0 0 0
334 1          74.53844934          81.96321413                 17.5 0 0 0
335 1          76.71959989          83.19512616                 17.5 0 0 0
336 1          78.90075044           84.4270382                 17.5 0 0 0
337 1            81.081901          85.65895024                 17.5 0 0 0
338 1          83.26305155          86.89086227                 17.5 0 0 0
339 1           85.4442021          88.12277431                 17.5 0 0 0
340 1          87.62535266          89.35468634                 17.5 0 0 0
341 1          89.80650321          90.58659838                 17.5 0 0 0
342 1          91.98765376          91.81851042                 17.5 0 0 0
343 1          94.16880432          93.05042245                 17.5 0 0 0
344 1          96.34995487          94.28233449                 17.5 0 0 0
345 1          98.53110542          95.51424652                 17.5 0 0 0
346 1         100.71225598          96.74615856                 17.5 0 0 0
347 1         102.89340653           97.9780706                 17.5 0 0 0
348 1         105.07455708          99.20998263                 17.5 0 0 0
349 1         107.25570764         100.44189467                 17.5 0 0 0
350 1         109.43685819          101.6738067                 17.5 0 0 0
351 1         111.61800874         102.90571874                 17.5 0 0 0
352 1          113.7991593         104.13763078                 17.5 0 0 0
353 1         115.98030985         105.36954281                 17.5 0 0 0
354 1          118.1614604         106.60145485                 17.5 0 0 0
355 1         120.34261096         107.83336688                 17.5 0 0 0
356 1         122.52376151         109.06527892                 17.5 0 0 0
357 1         124.70491206         110.29719096                 17.5 0 0 0
358 1         126.88606261         111.52910299                 17.5 0 0 0
359 1         129.06721317         112.76101503                 17.5 0 0 0
360 1         131.24836372         113.99292706                 17.5 0 0 0
361 1          33.07288067          56.05199764                 17.5 0 0 0
362 1          35.25403122          57.28390967                 17.5 0 0 0
363 1          37.43518178          58.51582171                 17.5 0 0 0
364 1          39.61633233          59.74773375                 17.5 0 0 0
365 1          41.79748288          60.97964578                 17.5 0 0 0
366 1          43.97863344          62.21155782                 17.5 0 0 0
367 1          46.15978399          63.44346985                 17.5 0 0 0
368 1          48.34093454          64.67538189                 17.5 0 0 0
369 1           50.5220851          65.90729393                 17.5 0 0 0
370 1          52.70323565          67.13920596                 17.5 0 0 0
371 1           54.8843862            68.371118                 17.5 0 0 0
372 1          57.06553676          69.60303003                 17.5 0 0 0
373 1          59.24668731          70.83494207                 17.5 0 0 0
374 1          61.42783786          72.06685411                 17.5 0 0 0
375 1          63.60898841          73.29876614                 17.5 0 0 0
376 1          65.79013897          74.53067818                 17.5 0 0 0
377 1          67.97128952          75.76259021                 17.5 0 0 0
378 1          70.15244007          76.99450225                 17.5 0 0 0
379 1          72.33359063          78.22641429                 17.5 0 0 0
380 1          74.51474118          79.45832632                 17.5 0 0 0
381 1          76.69589173          80.69023836                 17.5 0 0 0
382 1          78.87704229          81.92215039                 17.5 0 0 0
383 1          81.05819284          83.15406243                 17.5 0 0 0
384 1          83.23934339          84.38597447                 17.5 0 0 0
385 1          85.42049395           85.6178865                 17.5 0 0 0
386 1           87.6016445          86.84979854                 17.5 0 0 0
387 1          89.78279505          88.08171057                 17.5 0 0 0
388 1          91.96394561          89.31362261                 17.5 0 0 0
389 1          94.14509616          90.54553465                 17.5 0 0 0
390 1          96.32624671          91.77744668                 17.5 0 0 0
391 1          98.50739727          93.00935872                 17.5 0 0 0
392 1         100.68854782          94.24127075                 17.5 0 0 0
393 1         102.86969837          95.47318279                 17.5 0 0 0
394 1         105.05084892          96.70509483                 17.5 0 0 0
395 1         107.23199948          97.93700686                 17.5 0 0 0
396 1         109.41315003           99.1689189                 17.5 0 0 0
397 1         111.59430058         100.40083093                 17.5 0 0 0